Program Version,EnergyPlus, Version 8.5.0-c87e61b44b, YMD=2020.03.01 15:03
1,5,Environment Title[],Latitude[deg],Longitude[deg],Time Zone[],Elevation[m]
2,6,Day of Simulation[],Month[],Day of Month[],DST Indicator[1=yes 0=no],Hour[],StartMinute[],EndMinute[],DayType
3,3,Cumulative Day of Simulation[],Month[],Day of Month[],DST Indicator[1=yes 0=no],DayType  ! When Daily Report Variables Requested
4,2,Cumulative Days of Simulation[],Month[]  ! When Monthly Report Variables Requested
5,1,Cumulative Days of Simulation[] ! When Run Period Report Variables Requested
1897,1,COOLSYS1 DEMAND INLET NODE,System Node Temperature [C] !TimeStep
1898,1,COOLSYS1 DEMAND OUTLET NODE,System Node Temperature [C] !TimeStep
1899,1,COOLSYS1 DEMAND OUTLET NODE,System Node Mass Flow Rate [kg/s] !TimeStep
1900,1,COOLSYS1 SUPPLY INLET NODE,System Node Temperature [C] !TimeStep
1901,1,COOLSYS1 SUPPLY OUTLET NODE,System Node Temperature [C] !TimeStep
8,1,Electricity:Facility [J] !Hourly
1831,1,Heating:Electricity [J] !Hourly
1763,1,Cooling:Electricity [J] !Hourly
38,1,InteriorLights:Electricity [J] !Hourly
1711,1,ExteriorLights:Electricity [J] !Hourly
384,1,InteriorEquipment:Electricity [J] !Hourly
1732,1,ExteriorEquipment:Electricity [J] !Hourly
1687,1,Fans:Electricity [J] !Hourly
1885,1,Pumps:Electricity [J] !Hourly
1852,1,HeatRejection:Electricity [J] !Hourly
621,1,Gas:Facility [J] !Hourly
1810,1,Heating:Gas [J] !Hourly
641,1,WaterSystems:Gas [J] !Hourly
End of Data Dictionary
1,CHICAGO ANN HTG 99.6% CONDNS DB,  41.98, -87.92,  -6.00, 201.00
2,1, 1,21, 0, 1, 0.00, 1.00,WinterDesignDay
1897,6.70000114438965
1898,6.70000114438965
1899,0.0
1900,6.70362656385144
1901,6.70362656385144
2,1, 1,21, 0, 1, 1.00, 2.00,WinterDesignDay
1897,6.70000114438965
1898,6.70000114438965
1899,0.0
1900,6.70362656385144
1901,6.70362656385144
2,1, 1,21, 0, 1, 2.00, 3.00,WinterDesignDay
1897,6.70000114438965
1898,6.70000114438965
1899,0.0
1900,6.70362656385144
1901,6.70362656385144
2,1, 1,21, 0, 1, 3.00, 4.00,WinterDesignDay
1897,6.70000114438965
1898,6.70000114438965
1899,0.0
1900,6.70362656385144
1901,6.70362656385144
2,1, 1,21, 0, 1, 4.00, 5.00,WinterDesignDay
1897,6.7000011446197
1898,12.3916843098416
1899,1.203914560932181E-005
1900,6.7036269282331
1901,6.7036269282331
2,1, 1,21, 0, 1, 5.00, 6.00,WinterDesignDay
1897,6.70000114508185
1898,12.3916885512932
1899,1.203914560932181E-005
1900,6.70362766015085
1901,6.70362766015085
2,1, 1,21, 0, 1, 6.00, 7.00,WinterDesignDay
1897,6.70000114554409
1898,12.3916917379236
1899,1.203914560932181E-005
1900,6.70362839206898
1901,6.70362839206898
2,1, 1,21, 0, 1, 7.00, 8.00,WinterDesignDay
1897,6.70000114600642
1898,12.3916941261367
1899,1.203914560932181E-005
1900,6.70362912398737
1901,6.70362912398737
2,1, 1,21, 0, 1, 8.00, 9.00,WinterDesignDay
1897,6.70000114646884
1898,12.391695911692
1899,1.203914560932181E-005
1900,6.70362985590593
1901,6.70362985590593
2,1, 1,21, 0, 1, 9.00,10.00,WinterDesignDay
1897,6.70000114693136
1898,12.3916972418273
1899,1.203914560932181E-005
1900,6.7036305878246
1901,6.7036305878246
2,1, 1,21, 0, 1,10.00,11.00,WinterDesignDay
1897,6.70000114739397
1898,12.3916982301997
1899,1.203914560932181E-005
1900,6.70363131974333
1901,6.70363131974333
2,1, 1,21, 0, 1,11.00,12.00,WinterDesignDay
1897,6.70000114785668
1898,12.391698955779
1899,1.203914560932181E-005
1900,6.70363205166207
1901,6.70363205166207
2,1, 1,21, 0, 1,12.00,13.00,WinterDesignDay
1897,6.70000114831948
1898,12.3916994981405
1899,1.203914560932181E-005
1900,6.70363278358079
1901,6.70363278358079
2,1, 1,21, 0, 1,13.00,14.00,WinterDesignDay
1897,6.70000114878237
1898,12.3916999025538
1899,1.203914560932181E-005
1900,6.70363351549949
1901,6.70363351549949
2,1, 1,21, 0, 1,14.00,15.00,WinterDesignDay
1897,6.70000114924535
1898,12.3917002034471
1899,1.203914560932181E-005
1900,6.70363424741813
1901,6.70363424741813
2,1, 1,21, 0, 1,15.00,16.00,WinterDesignDay
1897,6.70000114970843
1898,12.3917004238778
1899,1.203914560932181E-005
1900,6.70363497933672
1901,6.70363497933672
2,1, 1,21, 0, 1,16.00,17.00,WinterDesignDay
1897,6.7000011501716
1898,12.3917005838322
1899,1.203914560932181E-005
1900,6.70363571125524
1901,6.70363571125524
2,1, 1,21, 0, 1,17.00,18.00,WinterDesignDay
1897,6.70000115063486
1898,12.3917006989754
1899,1.203914560932181E-005
1900,6.70363644317368
1901,6.70363644317368
2,1, 1,21, 0, 1,18.00,19.00,WinterDesignDay
1897,6.70000115109822
1898,12.391700775672
1899,1.203914560932181E-005
1900,6.70363717509204
1901,6.70363717509204
2,1, 1,21, 0, 1,19.00,20.00,WinterDesignDay
1897,6.70000115156167
1898,12.3917008297722
1899,1.203914560932181E-005
1900,6.70363790701031
1901,6.70363790701031
2,1, 1,21, 0, 1,20.00,21.00,WinterDesignDay
1897,6.70000115202522
1898,12.3917008642578
1899,1.203914560932181E-005
1900,6.7036386389285
1901,6.7036386389285
2,1, 1,21, 0, 1,21.00,22.00,WinterDesignDay
1897,6.70000115248885
1898,12.3917008766942
1899,1.203914560932181E-005
1900,6.7036393708466
1901,6.7036393708466
2,1, 1,21, 0, 1,22.00,23.00,WinterDesignDay
1897,6.70000115295258
1898,12.391700878699
1899,1.203914560932181E-005
1900,6.7036401027646
1901,6.7036401027646
2,1, 1,21, 0, 1,23.00,24.00,WinterDesignDay
1897,6.70000115341641
1898,12.3917008643649
1899,1.203914560932181E-005
1900,6.70364083468251
1901,6.70364083468251
2,1, 1,21, 0, 1,24.00,25.00,WinterDesignDay
1897,6.70000115388032
1898,12.3917008460654
1899,1.203914560932181E-005
1900,6.70364156660033
1901,6.70364156660033
2,1, 1,21, 0, 1,25.00,26.00,WinterDesignDay
1897,6.70000115434433
1898,12.391700821548
1899,1.203914560932181E-005
1900,6.70364229851805
1901,6.70364229851805
2,1, 1,21, 0, 1,26.00,27.00,WinterDesignDay
1897,6.70000115480843
1898,12.3917007912854
1899,1.203914560932181E-005
1900,6.70364303043567
1901,6.70364303043567
2,1, 1,21, 0, 1,27.00,28.00,WinterDesignDay
1897,6.70000115527263
1898,12.39170075603
1899,1.203914560932181E-005
1900,6.7036437623532
1901,6.7036437623532
2,1, 1,21, 0, 1,28.00,29.00,WinterDesignDay
1897,6.70000115573692
1898,12.3917007149906
1899,1.203914560932181E-005
1900,6.70364449427062
1901,6.70364449427062
2,1, 1,21, 0, 1,29.00,30.00,WinterDesignDay
1897,6.7000011562013
1898,12.3917006752527
1899,1.203914560932181E-005
1900,6.70364522618795
1901,6.70364522618795
2,1, 1,21, 0, 1,30.00,31.00,WinterDesignDay
1897,6.70000115666578
1898,12.3917006288361
1899,1.203914560932181E-005
1900,6.70364595810518
1901,6.70364595810518
2,1, 1,21, 0, 1,31.00,32.00,WinterDesignDay
1897,6.70000115689904
1898,6.70000115689904
1899,0.0
1900,6.70364632564087
1901,6.70364632564087
2,1, 1,21, 0, 1,32.00,33.00,WinterDesignDay
1897,6.70000115689904
1898,6.70000115689904
1899,0.0
1900,6.70364632564087
1901,6.70364632564087
2,1, 1,21, 0, 1,33.00,34.00,WinterDesignDay
1897,6.70000115689904
1898,6.70000115689904
1899,0.0
1900,6.70364632564087
1901,6.70364632564087
2,1, 1,21, 0, 1,34.00,35.00,WinterDesignDay
1897,6.70000115689904
1898,6.70000115689904
1899,0.0
1900,6.70364632564087
1901,6.70364632564087
2,1, 1,21, 0, 1,35.00,36.00,WinterDesignDay
1897,6.70000115712502
1898,12.3916824101826
1899,1.167111551178985E-005
1900,6.70364668163615
1901,6.70364668163615
2,1, 1,21, 0, 1,36.00,37.00,WinterDesignDay
1897,6.70000115757548
1898,12.3916864869095
1899,1.167111551178985E-005
1900,6.70364739117689
1901,6.70364739117689
2,1, 1,21, 0, 1,37.00,38.00,WinterDesignDay
1897,6.70000115802602
1898,12.3916895265976
1899,1.167111551178985E-005
1900,6.70364810071798
1901,6.70364810071798
2,1, 1,21, 0, 1,38.00,39.00,WinterDesignDay
1897,6.70000115847665
1898,12.3916917936617
1899,1.167111551178985E-005
1900,6.70364881025932
1901,6.70364881025932
2,1, 1,21, 0, 1,39.00,40.00,WinterDesignDay
1897,6.70000115892737
1898,12.3916934820809
1899,1.167111551178985E-005
1900,6.7036495198008
1901,6.7036495198008
2,1, 1,21, 0, 1,40.00,41.00,WinterDesignDay
1897,6.70000115937818
1898,12.3916947352347
1899,1.167111551178985E-005
1900,6.70365022934239
1901,6.70365022934239
2,1, 1,21, 0, 1,41.00,42.00,WinterDesignDay
1897,6.70000115982907
1898,12.3916956597275
1899,1.167111551178985E-005
1900,6.70365093888402
1901,6.70365093888402
2,1, 1,21, 0, 1,42.00,43.00,WinterDesignDay
1897,6.70000116028005
1898,12.3916963484603
1899,1.167111551178985E-005
1900,6.70365164842566
1901,6.70365164842566
2,1, 1,21, 0, 1,43.00,44.00,WinterDesignDay
1897,6.70000116073112
1898,12.3916968721286
1899,1.167111551178985E-005
1900,6.70365235796729
1901,6.70365235796729
2,1, 1,21, 0, 1,44.00,45.00,WinterDesignDay
1897,6.70000116118228
1898,12.3916972617111
1899,1.167111551178985E-005
1900,6.70365306750888
1901,6.70365306750888
2,1, 1,21, 0, 1,45.00,46.00,WinterDesignDay
1897,6.70000116163352
1898,12.3916975522713
1899,1.167111551178985E-005
1900,6.70365377705044
1901,6.70365377705044
2,1, 1,21, 0, 1,46.00,47.00,WinterDesignDay
1897,6.70000116208486
1898,12.3916977656387
1899,1.167111551178985E-005
1900,6.70365448659193
1901,6.70365448659193
2,1, 1,21, 0, 1,47.00,48.00,WinterDesignDay
1897,6.70000116253628
1898,12.3916979260056
1899,1.167111551178985E-005
1900,6.70365519613336
1901,6.70365519613336
2,1, 1,21, 0, 1,48.00,49.00,WinterDesignDay
1897,6.70000116298778
1898,12.3916980443176
1899,1.167111551178985E-005
1900,6.70365590567472
1901,6.70365590567472
2,1, 1,21, 0, 1,49.00,50.00,WinterDesignDay
1897,6.70000116343938
1898,12.3916981274448
1899,1.167111551178985E-005
1900,6.70365661521601
1901,6.70365661521601
2,1, 1,21, 0, 1,50.00,51.00,WinterDesignDay
1897,6.70000116389106
1898,12.3916981868364
1899,1.167111551178985E-005
1900,6.70365732475721
1901,6.70365732475721
2,1, 1,21, 0, 1,51.00,52.00,WinterDesignDay
1897,6.70000116434283
1898,12.3916982230669
1899,1.167111551178985E-005
1900,6.70365803429834
1901,6.70365803429834
2,1, 1,21, 0, 1,52.00,53.00,WinterDesignDay
1897,6.70000116479469
1898,12.391698245568
1899,1.167111551178985E-005
1900,6.70365874383938
1901,6.70365874383938
2,1, 1,21, 0, 1,53.00,54.00,WinterDesignDay
1897,6.70000116524663
1898,12.3916982561309
1899,1.167111551178985E-005
1900,6.70365945338033
1901,6.70365945338033
2,1, 1,21, 0, 1,54.00,55.00,WinterDesignDay
1897,6.70000116569866
1898,12.391698254861
1899,1.167111551178985E-005
1900,6.7036601629212
1901,6.7036601629212
2,1, 1,21, 0, 1,55.00,56.00,WinterDesignDay
1897,6.70000116615079
1898,12.3916982494308
1899,1.167111551178985E-005
1900,6.70366087246198
1901,6.70366087246198
2,1, 1,21, 0, 1,56.00,57.00,WinterDesignDay
1897,6.70000116660299
1898,12.3916982355797
1899,1.167111551178985E-005
1900,6.70366158200267
1901,6.70366158200267
2,1, 1,21, 0, 1,57.00,58.00,WinterDesignDay
1897,6.70000116705529
1898,12.3916982185456
1899,1.167111551178985E-005
1900,6.70366229154327
1901,6.70366229154327
2,1, 1,21, 0, 1,58.00,59.00,WinterDesignDay
1897,6.70000116750767
1898,12.3916981953547
1899,1.167111551178985E-005
1900,6.70366300108378
1901,6.70366300108378
2,1, 1,21, 0, 1,59.00,60.00,WinterDesignDay
1897,6.70000116796014
1898,12.3916981708205
1899,1.167111551178985E-005
1900,6.7036637106242
1901,6.7036637106242
2,1, 1,21, 0, 1, 0.00,60.00,WinterDesignDay
8,399755295.165475
38,0.0
384,0.0
621,7060935082.30461
641,7887257.50610014
1687,146050764.923325
1711,184543200.
1732,43999912.0879121
1763,0.0
1810,7053047824.79851
1831,0.0
1852,0.0
1885,25161418.1542382
2,1, 1,21, 0, 2, 0.00, 1.00,WinterDesignDay
1897,6.7000011684127
1898,12.3916981428832
1899,1.167111551178985E-005
1900,6.70366442016453
1901,6.70366442016453
2,1, 1,21, 0, 2, 1.00, 2.00,WinterDesignDay
1897,6.70000116886535
1898,12.3916981133462
1899,1.167111551178985E-005
1900,6.70366512970477
1901,6.70366512970477
2,1, 1,21, 0, 2, 2.00, 3.00,WinterDesignDay
1897,6.70000116909091
1898,6.70000116909091
1899,0.0
1900,6.70366548324985
1901,6.70366548324985
2,1, 1,21, 0, 2, 3.00, 4.00,WinterDesignDay
1897,6.70000116909091
1898,6.70000116909091
1899,0.0
1900,6.70366548324985
1901,6.70366548324985
2,1, 1,21, 0, 2, 4.00, 5.00,WinterDesignDay
1897,6.70000116909091
1898,6.70000116909091
1899,0.0
1900,6.70366548324985
1901,6.70366548324985
2,1, 1,21, 0, 2, 5.00, 6.00,WinterDesignDay
1897,6.70000116909091
1898,6.70000116909091
1899,0.0
1900,6.70366548324985
1901,6.70366548324985
2,1, 1,21, 0, 2, 6.00, 7.00,WinterDesignDay
1897,6.70000116930944
1898,12.391680457502
1899,1.124290834536184E-005
1900,6.70366582570132
1901,6.70366582570132
2,1, 1,21, 0, 2, 7.00, 8.00,WinterDesignDay
1897,6.70000116974564
1898,12.391684404953
1899,1.124290834536184E-005
1900,6.70366650920686
1901,6.70366650920686
2,1, 1,21, 0, 2, 8.00, 9.00,WinterDesignDay
1897,6.70000117018193
1898,12.3916873410054
1899,1.124290834536184E-005
1900,6.70366719271273
1901,6.70366719271273
2,1, 1,21, 0, 2, 9.00,10.00,WinterDesignDay
1897,6.70000117061829
1898,12.3916895260893
1899,1.124290834536184E-005
1900,6.70366787621882
1901,6.70366787621882
2,1, 1,21, 0, 2,10.00,11.00,WinterDesignDay
1897,6.70000117105474
1898,12.3916911480105
1899,1.124290834536184E-005
1900,6.70366855972506
1901,6.70366855972506
2,1, 1,21, 0, 2,11.00,12.00,WinterDesignDay
1897,6.70000117149127
1898,12.3916923506109
1899,1.124290834536184E-005
1900,6.70366924323139
1901,6.70366924323139
2,1, 1,21, 0, 2,12.00,13.00,WinterDesignDay
1897,6.70000117192788
1898,12.3916932495597
1899,1.124290834536184E-005
1900,6.70366992673776
1901,6.70366992673776
2,1, 1,21, 0, 2,13.00,14.00,WinterDesignDay
1897,6.70000117236458
1898,12.3916939339683
1899,1.124290834536184E-005
1900,6.70367061024414
1901,6.70367061024414
2,1, 1,21, 0, 2,14.00,15.00,WinterDesignDay
1897,6.70000117280135
1898,12.391694447864
1899,1.124290834536184E-005
1900,6.70367129375051
1901,6.70367129375051
2,1, 1,21, 0, 2,15.00,16.00,WinterDesignDay
1897,6.7000011732382
1898,12.3916948385749
1899,1.124290834536184E-005
1900,6.70367197725685
1901,6.70367197725685
2,1, 1,21, 0, 2,16.00,17.00,WinterDesignDay
1897,6.70000117367514
1898,12.3916951287608
1899,1.124290834536184E-005
1900,6.70367266076316
1901,6.70367266076316
2,1, 1,21, 0, 2,17.00,18.00,WinterDesignDay
1897,6.70000117411216
1898,12.3916953518516
1899,1.124290834536184E-005
1900,6.70367334426941
1901,6.70367334426941
2,1, 1,21, 0, 2,18.00,19.00,WinterDesignDay
1897,6.70000117454926
1898,12.3916955202893
1899,1.124290834536184E-005
1900,6.7036740277756
1901,6.7036740277756
2,1, 1,21, 0, 2,19.00,20.00,WinterDesignDay
1897,6.70000117498643
1898,12.3916956524681
1899,1.124290834536184E-005
1900,6.70367471128173
1901,6.70367471128173
2,1, 1,21, 0, 2,20.00,21.00,WinterDesignDay
1897,6.7000011754237
1898,12.3916957491722
1899,1.124290834536184E-005
1900,6.7036753947878
1901,6.7036753947878
2,1, 1,21, 0, 2,21.00,22.00,WinterDesignDay
1897,6.70000117586104
1898,12.3916958213717
1899,1.124290834536184E-005
1900,6.70367607829379
1901,6.70367607829379
2,1, 1,21, 0, 2,22.00,23.00,WinterDesignDay
1897,6.70000117629846
1898,12.3916958715872
1899,1.124290834536184E-005
1900,6.70367676179971
1901,6.70367676179971
2,1, 1,21, 0, 2,23.00,24.00,WinterDesignDay
1897,6.70000117673597
1898,12.3916959111139
1899,1.124290834536184E-005
1900,6.70367744530555
1901,6.70367744530555
2,1, 1,21, 0, 2,24.00,25.00,WinterDesignDay
1897,6.70000117717355
1898,12.3916959348188
1899,1.124290834536184E-005
1900,6.70367812881131
1901,6.70367812881131
2,1, 1,21, 0, 2,25.00,26.00,WinterDesignDay
1897,6.70000117761122
1898,12.3916959477609
1899,1.124290834536184E-005
1900,6.703678812317
1901,6.703678812317
2,1, 1,21, 0, 2,26.00,27.00,WinterDesignDay
1897,6.70000117804897
1898,12.3916959552664
1899,1.124290834536184E-005
1900,6.7036794958226
1901,6.7036794958226
2,1, 1,21, 0, 2,27.00,28.00,WinterDesignDay
1897,6.7000011784868
1898,12.3916959553774
1899,1.124290834536184E-005
1900,6.70368017932813
1901,6.70368017932813
2,1, 1,21, 0, 2,28.00,29.00,WinterDesignDay
1897,6.70000117892471
1898,12.3916959510479
1899,1.124290834536184E-005
1900,6.70368086283357
1901,6.70368086283357
2,1, 1,21, 0, 2,29.00,30.00,WinterDesignDay
1897,6.7000011793627
1898,12.3916959432584
1899,1.124290834536184E-005
1900,6.70368154633893
1901,6.70368154633893
2,1, 1,21, 0, 2,30.00,31.00,WinterDesignDay
1897,6.70000117980078
1898,12.391695932439
1899,1.124290834536184E-005
1900,6.70368222984421
1901,6.70368222984421
2,1, 1,21, 0, 2,31.00,32.00,WinterDesignDay
1897,6.70000118023893
1898,12.3916959172905
1899,1.124290834536184E-005
1900,6.7036829133494
1901,6.7036829133494
2,1, 1,21, 0, 2,32.00,33.00,WinterDesignDay
1897,6.70000118067717
1898,12.3916959019766
1899,1.124290834536184E-005
1900,6.70368359685451
1901,6.70368359685451
2,1, 1,21, 0, 2,33.00,34.00,WinterDesignDay
1897,6.70000118089586
1898,6.70000118089586
1899,0.0
1900,6.70368393790825
1901,6.70368393790825
2,1, 1,21, 0, 2,34.00,35.00,WinterDesignDay
1897,6.70000118089586
1898,6.70000118089586
1899,0.0
1900,6.70368393790825
1901,6.70368393790825
2,1, 1,21, 0, 2,35.00,36.00,WinterDesignDay
1897,6.70000118089586
1898,6.70000118089586
1899,0.0
1900,6.70368393790825
1901,6.70368393790825
2,1, 1,21, 0, 2,36.00,37.00,WinterDesignDay
1897,6.70000118089586
1898,6.70000118089586
1899,0.0
1900,6.70368393790825
1901,6.70368393790825
2,1, 1,21, 0, 2,37.00,38.00,WinterDesignDay
1897,6.70000118110749
1898,12.3916786825656
1899,1.083211570103647E-005
1900,6.70368426788362
1901,6.70368426788362
2,1, 1,21, 0, 2,38.00,39.00,WinterDesignDay
1897,6.70000118152987
1898,12.3916825224969
1899,1.083211570103647E-005
1900,6.70368492641296
1901,6.70368492641296
2,1, 1,21, 0, 2,39.00,40.00,WinterDesignDay
1897,6.70000118195232
1898,12.3916853680684
1899,1.083211570103647E-005
1900,6.70368558494261
1901,6.70368558494261
2,1, 1,21, 0, 2,40.00,41.00,WinterDesignDay
1897,6.70000118237485
1898,12.3916874842872
1899,1.083211570103647E-005
1900,6.70368624347246
1901,6.70368624347246
2,1, 1,21, 0, 2,41.00,42.00,WinterDesignDay
1897,6.70000118279745
1898,12.3916890524911
1899,1.083211570103647E-005
1900,6.70368690200245
1901,6.70368690200245
2,1, 1,21, 0, 2,42.00,43.00,WinterDesignDay
1897,6.70000118322013
1898,12.3916902305966
1899,1.083211570103647E-005
1900,6.70368756053253
1901,6.70368756053253
2,1, 1,21, 0, 2,43.00,44.00,WinterDesignDay
1897,6.70000118364289
1898,12.3916911262202
1899,1.083211570103647E-005
1900,6.70368821906264
1901,6.70368821906264
2,1, 1,21, 0, 2,44.00,45.00,WinterDesignDay
1897,6.70000118406572
1898,12.3916918057427
1899,1.083211570103647E-005
1900,6.70368887759277
1901,6.70368887759277
2,1, 1,21, 0, 2,45.00,46.00,WinterDesignDay
1897,6.70000118448863
1898,12.3916923215009
1899,1.083211570103647E-005
1900,6.70368953612289
1901,6.70368953612289
2,1, 1,21, 0, 2,46.00,47.00,WinterDesignDay
1897,6.70000118491161
1898,12.3916927094597
1899,1.083211570103647E-005
1900,6.703690194653
1901,6.703690194653
2,1, 1,21, 0, 2,47.00,48.00,WinterDesignDay
1897,6.70000118533467
1898,12.3916930093015
1899,1.083211570103647E-005
1900,6.70369085318306
1901,6.70369085318306
2,1, 1,21, 0, 2,48.00,49.00,WinterDesignDay
1897,6.7000011857578
1898,12.3916932427594
1899,1.083211570103647E-005
1900,6.70369151171308
1901,6.70369151171308
2,1, 1,21, 0, 2,49.00,50.00,WinterDesignDay
1897,6.70000118618101
1898,12.391693421286
1899,1.083211570103647E-005
1900,6.70369217024305
1901,6.70369217024305
2,1, 1,21, 0, 2,50.00,51.00,WinterDesignDay
1897,6.70000118660429
1898,12.3916935635114
1899,1.083211570103647E-005
1900,6.70369282877296
1901,6.70369282877296
2,1, 1,21, 0, 2,51.00,52.00,WinterDesignDay
1897,6.70000118702765
1898,12.3916936701348
1899,1.083211570103647E-005
1900,6.7036934873028
1901,6.7036934873028
2,1, 1,21, 0, 2,52.00,53.00,WinterDesignDay
1897,6.70000118745109
1898,12.3916937580146
1899,1.083211570103647E-005
1900,6.70369414583259
1901,6.70369414583259
2,1, 1,21, 0, 2,53.00,54.00,WinterDesignDay
1897,6.7000011878746
1898,12.3916938236812
1899,1.083211570103647E-005
1900,6.70369480436231
1901,6.70369480436231
2,1, 1,21, 0, 2,54.00,55.00,WinterDesignDay
1897,6.70000118829818
1898,12.3916938770287
1899,1.083211570103647E-005
1900,6.70369546289196
1901,6.70369546289196
2,1, 1,21, 0, 2,55.00,56.00,WinterDesignDay
1897,6.70000118872184
1898,12.3916939162386
1899,1.083211570103647E-005
1900,6.70369612142153
1901,6.70369612142153
2,1, 1,21, 0, 2,56.00,57.00,WinterDesignDay
1897,6.70000118914558
1898,12.3916939476825
1899,1.083211570103647E-005
1900,6.70369677995104
1901,6.70369677995104
2,1, 1,21, 0, 2,57.00,58.00,WinterDesignDay
1897,6.70000118956939
1898,12.3916939681949
1899,1.083211570103647E-005
1900,6.70369743848048
1901,6.70369743848048
2,1, 1,21, 0, 2,58.00,59.00,WinterDesignDay
1897,6.70000118999328
1898,12.3916939862682
1899,1.083211570103647E-005
1900,6.70369809700984
1901,6.70369809700984
2,1, 1,21, 0, 2,59.00,60.00,WinterDesignDay
1897,6.70000119041724
1898,12.3916939970694
1899,1.083211570103647E-005
1900,6.70369875553912
1901,6.70369875553912
2,1, 1,21, 0, 2, 0.00,60.00,WinterDesignDay
8,397462629.484036
38,0.0
384,0.0
621,6986095726.50413
641,7887318.18497238
1687,143765480.299578
1711,184543200.
1732,43999912.0879121
1763,0.0
1810,6978208408.31916
1831,0.0
1852,0.0
1885,25154037.0965451
2,1, 1,21, 0, 3, 0.00, 1.00,WinterDesignDay
1897,6.70000119084128
1898,12.3916940073173
1899,1.083211570103647E-005
1900,6.70369941406834
1901,6.70369941406834
2,1, 1,21, 0, 3, 1.00, 2.00,WinterDesignDay
1897,6.7000011912654
1898,12.3916940083996
1899,1.083211570103647E-005
1900,6.70370007259748
1901,6.70370007259748
2,1, 1,21, 0, 3, 2.00, 3.00,WinterDesignDay
1897,6.70000119168958
1898,12.3916940096853
1899,1.083211570103647E-005
1900,6.70370073112654
1901,6.70370073112654
2,1, 1,21, 0, 3, 3.00, 4.00,WinterDesignDay
1897,6.70000119211385
1898,12.3916940071325
1899,1.083211570103647E-005
1900,6.70370138965553
1901,6.70370138965553
2,1, 1,21, 0, 3, 4.00, 5.00,WinterDesignDay
1897,6.70000119232554
1898,6.70000119232554
1899,0.0
1900,6.70370171820921
1901,6.70370171820921
2,1, 1,21, 0, 3, 5.00, 6.00,WinterDesignDay
1897,6.70000119232554
1898,6.70000119232554
1899,0.0
1900,6.70370171820921
1901,6.70370171820921
2,1, 1,21, 0, 3, 6.00, 7.00,WinterDesignDay
1897,6.70000119232554
1898,6.70000119232554
1899,0.0
1900,6.70370171820921
1901,6.70370171820921
2,1, 1,21, 0, 3, 7.00, 8.00,WinterDesignDay
1897,6.70000119232554
1898,6.70000119232554
1899,0.0
1900,6.70370171820921
1901,6.70370171820921
2,1, 1,21, 0, 3, 8.00, 9.00,WinterDesignDay
1897,6.70000119232554
1898,6.70000119232554
1899,0.0
1900,6.70370171820921
1901,6.70370171820921
2,1, 1,21, 0, 3, 9.00,10.00,WinterDesignDay
1897,6.70000119255317
1898,12.3916808321911
1899,1.169437399612275E-005
1900,6.70370207143167
1901,6.70370207143167
2,1, 1,21, 0, 3,10.00,11.00,WinterDesignDay
1897,6.70000119301138
1898,12.3916836033214
1899,1.169437399612275E-005
1900,6.70370278237927
1901,6.70370278237927
2,1, 1,21, 0, 3,11.00,12.00,WinterDesignDay
1897,6.70000119346967
1898,12.3916856557395
1899,1.169437399612275E-005
1900,6.70370349332707
1901,6.70370349332707
2,1, 1,21, 0, 3,12.00,13.00,WinterDesignDay
1897,6.70000119392805
1898,12.391687198773
1899,1.169437399612275E-005
1900,6.70370420427502
1901,6.70370420427502
2,1, 1,21, 0, 3,13.00,14.00,WinterDesignDay
1897,6.70000119438652
1898,12.391688365589
1899,1.169437399612275E-005
1900,6.70370491522304
1901,6.70370491522304
2,1, 1,21, 0, 3,14.00,15.00,WinterDesignDay
1897,6.70000119484508
1898,12.3916892519524
1899,1.169437399612275E-005
1900,6.7037056261711
1901,6.7037056261711
2,1, 1,21, 0, 3,15.00,16.00,WinterDesignDay
1897,6.70000119530373
1898,12.3916899275747
1899,1.169437399612275E-005
1900,6.70370633711917
1901,6.70370633711917
2,1, 1,21, 0, 3,16.00,17.00,WinterDesignDay
1897,6.70000119576246
1898,12.3916904398174
1899,1.169437399612275E-005
1900,6.70370704806722
1901,6.70370704806722
2,1, 1,21, 0, 3,17.00,18.00,WinterDesignDay
1897,6.70000119622128
1898,12.3916908341304
1899,1.169437399612275E-005
1900,6.70370775901524
1901,6.70370775901524
2,1, 1,21, 0, 3,18.00,19.00,WinterDesignDay
1897,6.70000119668019
1898,12.3916911448703
1899,1.169437399612275E-005
1900,6.70370846996322
1901,6.70370846996322
2,1, 1,21, 0, 3,19.00,20.00,WinterDesignDay
1897,6.70000119713919
1898,12.3916913882124
1899,1.169437399612275E-005
1900,6.70370918091115
1901,6.70370918091115
2,1, 1,21, 0, 3,20.00,21.00,WinterDesignDay
1897,6.70000119759827
1898,12.3916915793478
1899,1.169437399612275E-005
1900,6.70370989185901
1901,6.70370989185901
2,1, 1,21, 0, 3,21.00,22.00,WinterDesignDay
1897,6.70000119805745
1898,12.3916917318486
1899,1.169437399612275E-005
1900,6.70371060280681
1901,6.70371060280681
2,1, 1,21, 0, 3,22.00,23.00,WinterDesignDay
1897,6.70000119851671
1898,12.3916918543957
1899,1.169437399612275E-005
1900,6.70371131375454
1901,6.70371131375454
2,1, 1,21, 0, 3,23.00,24.00,WinterDesignDay
1897,6.70000119897606
1898,12.3916919546213
1899,1.169437399612275E-005
1900,6.70371202470219
1901,6.70371202470219
2,1, 1,21, 0, 3,24.00,25.00,WinterDesignDay
1897,6.7000011994355
1898,12.3916920353636
1899,1.169437399612275E-005
1900,6.70371273564976
1901,6.70371273564976
2,1, 1,21, 0, 3,25.00,26.00,WinterDesignDay
1897,6.70000119989502
1898,12.3916921019748
1899,1.169437399612275E-005
1900,6.70371344659726
1901,6.70371344659726
2,1, 1,21, 0, 3,26.00,27.00,WinterDesignDay
1897,6.70000120035463
1898,12.39169215883
1899,1.169437399612275E-005
1900,6.70371415754467
1901,6.70371415754467
2,1, 1,21, 0, 3,27.00,28.00,WinterDesignDay
1897,6.70000120081434
1898,12.3916922023063
1899,1.169437399612275E-005
1900,6.70371486849201
1901,6.70371486849201
2,1, 1,21, 0, 3,28.00,29.00,WinterDesignDay
1897,6.70000120127412
1898,12.3916922399964
1899,1.169437399612275E-005
1900,6.70371557943926
1901,6.70371557943926
2,1, 1,21, 0, 3,29.00,30.00,WinterDesignDay
1897,6.700001201734
1898,12.3916922698167
1899,1.169437399612275E-005
1900,6.70371629038643
1901,6.70371629038643
2,1, 1,21, 0, 3,30.00,31.00,WinterDesignDay
1897,6.70000120219397
1898,12.3916922963989
1899,1.169437399612275E-005
1900,6.70371700133351
1901,6.70371700133351
2,1, 1,21, 0, 3,31.00,32.00,WinterDesignDay
1897,6.70000120265402
1898,12.3916923191872
1899,1.169437399612275E-005
1900,6.70371771228051
1901,6.70371771228051
2,1, 1,21, 0, 3,32.00,33.00,WinterDesignDay
1897,6.70000120311416
1898,12.3916923379162
1899,1.169437399612275E-005
1900,6.70371842322742
1901,6.70371842322742
2,1, 1,21, 0, 3,33.00,34.00,WinterDesignDay
1897,6.70000120357439
1898,12.3916923526877
1899,1.169437399612275E-005
1900,6.70371913417424
1901,6.70371913417424
2,1, 1,21, 0, 3,34.00,35.00,WinterDesignDay
1897,6.70000120403471
1898,12.3916923654553
1899,1.169437399612275E-005
1900,6.70371984512098
1901,6.70371984512098
2,1, 1,21, 0, 3,35.00,36.00,WinterDesignDay
1897,6.70000120426634
1898,6.70000120426634
1899,0.0
1900,6.7037202028456
1901,6.7037202028456
2,1, 1,21, 0, 3,36.00,37.00,WinterDesignDay
1897,6.70000120426634
1898,6.70000120426634
1899,0.0
1900,6.7037202028456
1901,6.7037202028456
2,1, 1,21, 0, 3,37.00,38.00,WinterDesignDay
1897,6.70000120426634
1898,6.70000120426634
1899,0.0
1900,6.7037202028456
1901,6.7037202028456
2,1, 1,21, 0, 3,38.00,39.00,WinterDesignDay
1897,6.70000120426634
1898,6.70000120426634
1899,0.0
1900,6.7037202028456
1901,6.7037202028456
2,1, 1,21, 0, 3,39.00,40.00,WinterDesignDay
1897,6.70000120426634
1898,6.70000120426634
1899,0.0
1900,6.7037202028456
1901,6.7037202028456
2,1, 1,21, 0, 3,40.00,41.00,WinterDesignDay
1897,6.70000120449035
1898,12.3916796588365
1899,1.141994934757309E-005
1900,6.70372054871904
1901,6.70372054871904
2,1, 1,21, 0, 3,41.00,42.00,WinterDesignDay
1897,6.70000120494004
1898,12.3916825278215
1899,1.141994934757309E-005
1900,6.7037212429809
1901,6.7037212429809
2,1, 1,21, 0, 3,42.00,43.00,WinterDesignDay
1897,6.70000120538981
1898,12.3916846846245
1899,1.141994934757309E-005
1900,6.70372193724298
1901,6.70372193724298
2,1, 1,21, 0, 3,43.00,44.00,WinterDesignDay
1897,6.70000120583966
1898,12.3916863116364
1899,1.141994934757309E-005
1900,6.7037226315052
1901,6.7037226315052
2,1, 1,21, 0, 3,44.00,45.00,WinterDesignDay
1897,6.70000120628959
1898,12.3916875399116
1899,1.141994934757309E-005
1900,6.70372332576752
1901,6.70372332576752
2,1, 1,21, 0, 3,45.00,46.00,WinterDesignDay
1897,6.70000120673961
1898,12.391688463383
1899,1.141994934757309E-005
1900,6.70372402002988
1901,6.70372402002988
2,1, 1,21, 0, 3,46.00,47.00,WinterDesignDay
1897,6.70000120718972
1898,12.3916891525413
1899,1.141994934757309E-005
1900,6.70372471429225
1901,6.70372471429225
2,1, 1,21, 0, 3,47.00,48.00,WinterDesignDay
1897,6.70000120763991
1898,12.3916896797897
1899,1.141994934757309E-005
1900,6.70372540855461
1901,6.70372540855461
2,1, 1,21, 0, 3,48.00,49.00,WinterDesignDay
1897,6.70000120809018
1898,12.3916900859938
1899,1.141994934757309E-005
1900,6.70372610281695
1901,6.70372610281695
2,1, 1,21, 0, 3,49.00,50.00,WinterDesignDay
1897,6.70000120854053
1898,12.3916904016834
1899,1.141994934757309E-005
1900,6.70372679707924
1901,6.70372679707924
2,1, 1,21, 0, 3,50.00,51.00,WinterDesignDay
1897,6.70000120899097
1898,12.3916906448099
1899,1.141994934757309E-005
1900,6.70372749134149
1901,6.70372749134149
2,1, 1,21, 0, 3,51.00,52.00,WinterDesignDay
1897,6.7000012094415
1898,12.3916908308982
1899,1.141994934757309E-005
1900,6.70372818560367
1901,6.70372818560367
2,1, 1,21, 0, 3,52.00,53.00,WinterDesignDay
1897,6.70000120989211
1898,12.391690983256
1899,1.141994934757309E-005
1900,6.7037288798658
1901,6.7037288798658
2,1, 1,21, 0, 3,53.00,54.00,WinterDesignDay
1897,6.7000012103428
1898,12.3916910983892
1899,1.141994934757309E-005
1900,6.70372957412785
1901,6.70372957412785
2,1, 1,21, 0, 3,54.00,55.00,WinterDesignDay
1897,6.70000121079357
1898,12.3916911945241
1899,1.141994934757309E-005
1900,6.70373026838984
1901,6.70373026838984
2,1, 1,21, 0, 3,55.00,56.00,WinterDesignDay
1897,6.70000121124443
1898,12.3916912687021
1899,1.141994934757309E-005
1900,6.70373096265175
1901,6.70373096265175
2,1, 1,21, 0, 3,56.00,57.00,WinterDesignDay
1897,6.70000121169537
1898,12.3916913320632
1899,1.141994934757309E-005
1900,6.70373165691358
1901,6.70373165691358
2,1, 1,21, 0, 3,57.00,58.00,WinterDesignDay
1897,6.7000012121464
1898,12.3916913789405
1899,1.141994934757309E-005
1900,6.70373235117534
1901,6.70373235117534
2,1, 1,21, 0, 3,58.00,59.00,WinterDesignDay