Program Version,EnergyPlus, Version 8.5.0-c87e61b44b, YMD=2020.03.01 15:03
1,5,Environment Title[],Latitude[deg],Longitude[deg],Time Zone[],Elevation[m]
2,6,Day of Simulation[],Month[],Day of Month[],DST Indicator[1=yes 0=no],Hour[],StartMinute[],EndMinute[],DayType
3,3,Cumulative Day of Simulation[],Month[],Day of Month[],DST Indicator[1=yes 0=no],DayType  ! When Daily Meters Requested
4,2,Cumulative Days of Simulation[],Month[]  ! When Monthly Meters Requested
5,1,Cumulative Days of Simulation[] ! When Run Period Meters Requested
8,1,Electricity:Facility [J] !Hourly
1831,1,Heating:Electricity [J] !Hourly
1763,1,Cooling:Electricity [J] !Hourly
38,1,InteriorLights:Electricity [J] !Hourly
1711,1,ExteriorLights:Electricity [J] !Hourly
384,1,InteriorEquipment:Electricity [J] !Hourly
1732,1,ExteriorEquipment:Electricity [J] !Hourly
1687,1,Fans:Electricity [J] !Hourly
1885,1,Pumps:Electricity [J] !Hourly
1852,1,HeatRejection:Electricity [J] !Hourly
621,1,Gas:Facility [J] !Hourly
1810,1,Heating:Gas [J] !Hourly
641,1,WaterSystems:Gas [J] !Hourly
End of Data Dictionary
1,CHICAGO ANN HTG 99.6% CONDNS DB,  41.98, -87.92,  -6.00, 201.00
2,1, 1,21, 0, 1, 0.00,60.00,WinterDesignDay
8,399755295.165475
38,0.0
384,0.0
621,7060935082.30461
641,7887257.50610014
1687,146050764.923325
1711,184543200.
1732,43999912.0879121
1763,0.0
1810,7053047824.79851
1831,0.0
1852,0.0
1885,25161418.1542382
2,1, 1,21, 0, 2, 0.00,60.00,WinterDesignDay
8,397462629.484036
38,0.0
384,0.0
621,6986095726.50413
641,7887318.18497238
1687,143765480.299578
1711,184543200.
1732,43999912.0879121
1763,0.0
1810,6978208408.31916
1831,0.0
1852,0.0
1885,25154037.0965451
2,1, 1,21, 0, 3, 0.00,60.00,WinterDesignDay
8,397522860.308277
38,0.0
384,0.0
621,6993630681.98602
641,7887244.76765838
1687,143765480.299578
1711,184543200.
1732,43999912.0879121
1763,0.0
1810,6985743437.21836
1831,0.0
1852,0.0
1885,25214267.9207861
2,1, 1,21, 0, 4, 0.00,60.00,WinterDesignDay
8,397568510.237592
38,0.0
384,0.0
621,7005893726.47411
641,15702526.3095238
1687,143765480.299578
1711,184543200.
1732,43999912.0879121
1763,0.0
1810,6990191200.16458
1831,0.0
1852,0.0
1885,25259917.8501014
2,1, 1,21, 0, 5, 0.00,60.00,WinterDesignDay
8,441536117.214528
38,0.0
384,0.0
621,6995094079.914
641,7887281.5081678
1687,143765480.299578
1711,184543200.
1732,87999824.1758242
1763,0.0
1810,6987206798.40583
1831,0.0
1852,0.0
1885,25227612.7391257
2,1, 1,21, 0, 6, 0.00,60.00,WinterDesignDay
8,529574667.159642
38,0.0
384,0.0
621,7007013141.97585
641,15724747.0522103
1687,143765480.299578
1711,184543200.
1732,175999648.351648
1763,0.0
1810,6991288394.92364
1831,0.0
1852,0.0
1885,25266338.5084154
2,1, 1,21, 0, 7, 0.00,60.00,WinterDesignDay
8,706793009.252238
38,0.0
384,0.0
621,6660564047.78498
641,15717644.6033219
1687,148722910.654736
1711,184543200.
1732,351999296.703297
1763,0.0
1810,6644846403.18166
1831,0.0
1852,0.0
1885,21527601.8942051
2,1, 1,21, 0, 8, 0.00,60.00,WinterDesignDay
8,677284875.55568
38,0.0
384,0.0
621,9933117438.90613
641,15748086.7761074
1687,148722910.654736
1711,58438680.
1732,439999120.879121
1763,0.0
1810,9917369352.13002
1831,0.0
1852,0.0
1885,30124164.0218227
2,1, 1,21, 0, 9, 0.00,60.00,WinterDesignDay
8,618762142.031178
38,0.0
384,0.0
621,9945865120.56349
641,31485142.2623686
1687,148722910.654736
1711,0.0
1732,439999120.879121
1763,0.0
1810,9914379978.30112
1831,0.0
1852,0.0
1885,30040110.497321
2,1, 1,21, 0,10, 0.00,60.00,WinterDesignDay
8,486722961.933691
38,0.0
384,0.0
621,9945429497.76753
641,39453279.2527976
1687,148722910.654736
1711,0.0
1732,307999384.615384
1763,0.0
1810,9905976218.51473
1831,0.0
1852,0.0
1885,30000666.6635706
2,1, 1,21, 0,11, 0.00,60.00,WinterDesignDay
8,310684167.874271
38,0.0
384,0.0
621,9937353764.40889
641,37428988.1817793
1687,148722910.654736
1711,0.0
1732,131999736.263736
1763,0.0
1810,9899924776.22711
1831,0.0
1852,0.0
1885,29961520.9557987
2,1, 1,21, 0,12, 0.00,60.00,WinterDesignDay
8,310665267.451938
38,0.0
384,0.0
621,9936742842.78837
641,41470089.9610561
1687,148722910.654736
1711,0.0
1732,131999736.263736
1763,0.0
1810,9895272752.82731
1831,0.0
1852,0.0
1885,29942620.5334651
2,1, 1,21, 0,13, 0.00,60.00,WinterDesignDay
8,310638588.114787
38,0.0
384,0.0
621,9930892168.98682
641,39433799.8647985
1687,148722910.654736
1711,0.0
1732,131999736.263736
1763,0.0
1810,9891458369.12202
1831,0.0
1852,0.0
1885,29915941.1963147
2,1, 1,21, 0,14, 0.00,60.00,WinterDesignDay
8,310620338.230482
38,0.0
384,0.0
621,9920084330.32581
641,31546126.6186932
1687,148722910.654736
1711,0.0
1732,131999736.263736
1763,0.0
1810,9888538203.70712
1831,0.0
1852,0.0
1885,29897691.3120101
2,1, 1,21, 0,15, 0.00,60.00,WinterDesignDay
8,310598726.091892
38,0.0
384,0.0
621,9917359385.5465
641,31483768.9080888
1687,148722910.654736
1711,0.0
1732,131999736.263736
1763,0.0
1810,9885875616.63841
1831,0.0
1852,0.0
1885,29876079.1734199
2,1, 1,21, 0,16, 0.00,60.00,WinterDesignDay
8,310582055.410497
38,0.0
384,0.0
621,9907125112.54591
641,23609078.8432873
1687,148722910.654736
1711,0.0
1732,131999736.263736
1763,0.0
1810,9883516033.70263
1831,0.0
1852,0.0
1885,29859408.4920247
2,1, 1,21, 0,17, 0.00,60.00,WinterDesignDay
8,529632849.243843
38,0.0
384,0.0
621,9905097893.36422
641,23620299.8764117
1687,148722910.654736
1711,43060080.
1732,307999384.615384
1763,0.0
1810,9881477593.48781
1831,0.0
1852,0.0
1885,29850473.9737223
2,1, 1,21, 0,18, 0.00,60.00,WinterDesignDay
8,803094564.608885
38,0.0
384,0.0
621,9895635416.41521
641,15717660.9736947
1687,148722910.654736
1711,184543200.
1732,439999120.879121
1763,0.0
1810,9879917755.44151
1831,0.0
1852,0.0
1885,29829333.075028
2,1, 1,21, 0,19, 0.00,60.00,WinterDesignDay
8,795445819.939683
38,0.0
384,0.0
621,7048802256.40673
641,15717738.8619469
1687,146050764.923325
1711,184543200.
1732,439999120.879121
1763,0.0
1810,7033084517.54478
1831,0.0
1852,0.0
1885,24852734.1372373
2,1, 1,21, 0,20, 0.00,60.00,WinterDesignDay
8,705285697.231206
38,0.0
384,0.0
621,6967720660.40916
641,15717603.4325957
1687,143765480.299578
1711,184543200.
1732,351999296.703297
1763,0.0
1810,6952003056.97656
1831,0.0
1852,0.0
1885,24977720.2283317
2,1, 1,21, 0,21, 0.00,60.00,WinterDesignDay
8,705394428.940531
38,0.0
384,0.0
621,6974683316.76677
641,7894335.0428339
1687,143765480.299578
1711,184543200.
1732,351999296.703297
1763,0.0
1810,6966788981.72394
1831,0.0
1852,0.0
1885,25086451.9376559
2,1, 1,21, 0,22, 0.00,60.00,WinterDesignDay
8,617471315.167996
38,0.0
384,0.0
621,6998764462.85361
641,23563213.8778448
1687,143765480.299578
1711,184543200.
1732,263999472.527472
1763,0.0
1810,6975201248.97577
1831,0.0
1852,0.0
1885,25163162.3409455
2,1, 1,21, 0,23, 0.00,60.00,WinterDesignDay
8,529450332.928858
38,0.0
384,0.0
621,6982950374.27123
641,7887233.74726804
1687,143765480.299578
1711,184543200.
1732,175999648.351648
1763,0.0
1810,6975063140.52396
1831,0.0
1852,0.0
1885,25142004.2776317
2,1, 1,21, 0,24, 0.00,60.00,WinterDesignDay
8,441498564.682666
38,0.0
384,0.0
621,6989159154.56902
641,7887289.10657798
1687,143765480.299578
1711,184543200.
1732,87999824.1758242
1763,0.0
1810,6981271865.46245
1831,0.0
1852,0.0
1885,25190060.207264
1,CHICAGO ANN CLG .4% CONDNS WB=>MDB,  41.98, -87.92,  -6.00, 201.00
2,1, 7,21, 0, 1, 0.00,60.00,SummerDesignDay
8,4863893068.51385
38,1794266174.45477
384,1794266174.45477
621,72000.
641,72000.
1687,82483919.4448103
1711,184543200.
1732,43999912.0879121
1763,607967935.10375
1810,0.0
1831,0.0
1852,134432241.257973
1885,221933511.709856
2,1, 7,21, 0, 2, 0.00,60.00,SummerDesignDay
8,5420725860.97201
38,1794266174.45477
384,1794266174.45477
621,7881252.25612927
641,7881252.25612927
1687,112590201.122641
1711,184543200.
1732,43999912.0879121
1763,1009468795.24418
1810,0.0
1831,0.0
1852,181327209.138662
1885,300264194.469069
2,1, 7,21, 0, 3, 0.00,60.00,SummerDesignDay
8,5456992808.00175
38,1794266174.45477
384,1794266174.45477
621,7881184.70020013
641,7881184.70020013
1687,100365631.922692
1711,184543200.
1732,43999912.0879121
1763,1089170652.68736
1810,0.0
1831,0.0
1852,171948215.562524
1885,278432846.831715
2,1, 7,21, 0, 4, 0.00,60.00,SummerDesignDay
8,5265927673.48796
38,1794266174.45477
384,1794266174.45477
621,7881199.26884601
641,7881199.26884601
1687,96274394.0195584
1711,184543200.
1732,43999912.0879121
1763,962837207.080071
1810,0.0
1831,0.0
1852,143811234.834111
1885,245929376.55676
2,1, 7,21, 0, 5, 0.00,60.00,SummerDesignDay
8,5523437124.20223
38,1794266174.45477
384,1794266174.45477
621,7881213.5247416
641,7881213.5247416
1687,114468552.671695
1711,116877360.
1732,87999824.1758242
1763,1114491021.04401
1810,0.0
1831,0.0
1852,187579871.522754
1885,313488145.878395
2,1, 7,21, 0, 6, 0.00,60.00,SummerDesignDay
8,5317017439.37728
38,1794266174.45477
384,1794266174.45477
621,7888951.37588288
641,7888951.37588288
1687,98826842.1985809
1711,0.0
1732,175999648.351648
1763,980433536.643251
1810,0.0
1831,0.0
1852,181327209.138662
1885,291897854.135592
2,1, 7,21, 0, 7, 0.00,60.00,SummerDesignDay
8,6626043783.74326
38,1794266174.45477
384,1794266174.45477
621,15699089.350418
641,15699089.350418
1687,214707922.509247
1711,0.0
1732,351999296.703297
1763,1968871227.11757
1810,0.0
1831,0.0
1852,187579871.522754
1885,314353116.980842
2,1, 7,21, 0, 8, 0.00,60.00,SummerDesignDay
8,6263430419.14946
38,1794266174.45477
384,1794266174.45477
621,23606742.4392824
641,23606742.4392824
1687,191188837.489024
1711,0.0
1732,439999120.879121
1763,1517805996.74415
1810,0.0
1831,0.0
1852,187579871.522754
1885,338324243.604855
2,1, 7,21, 0, 9, 0.00,60.00,SummerDesignDay
8,6363441720.37265
38,1794266174.45477
384,1794266174.45477
621,39505002.2993799
641,39505002.2993799
1687,192113216.808048
1711,0.0
1732,439999120.879121
1763,1614399229.15167
1810,0.0
1831,0.0
1852,187579871.522754
1885,340817933.101507
2,1, 7,21, 0,10, 0.00,60.00,SummerDesignDay
8,6291038648.84695
38,1794266174.45477
384,1794266174.45477
621,47438537.2581696
641,47438537.2581696
1687,189268283.937675
1711,0.0
1732,307999384.615384
1763,1676836015.36067
1810,0.0
1831,0.0
1852,187579871.522754
1885,340822744.50092
2,1, 7,21, 0,11, 0.00,60.00,SummerDesignDay
8,6152885024.84319
38,1794266174.45477
384,1794266174.45477
621,55352793.683682
641,55352793.683682
1687,183523489.38838
1711,0.0
1732,131999736.263736
1763,1720425235.37753
1810,0.0
1831,0.0
1852,187579871.522754
1885,340824343.381238
2,1, 7,21, 0,12, 0.00,60.00,SummerDesignDay
8,6198637805.72201
38,1794266174.45477
384,1794266174.45477
621,55499134.6803267
641,55499134.6803267
1687,183219998.25436
1711,0.0
1732,131999736.263736
1763,1766468758.21153
1810,0.0
1831,0.0
1852,187579871.522754
1885,340837092.560076
2,1, 7,21, 0,13, 0.00,60.00,SummerDesignDay
8,6230980945.21574
38,1794266174.45477
384,1794266174.45477
621,71571930.144854
641,71571930.144854
1687,183674209.549097
1711,0.0
1732,131999736.263736
1763,1798341684.9876
1810,0.0
1831,0.0
1852,187579871.522754
1885,340853093.983
2,1, 7,21, 0,14, 0.00,60.00,SummerDesignDay
8,6255029479.88107
38,1794266174.45477
384,1794266174.45477
621,71501033.6969569
641,71501033.6969569
1687,184188791.90536
1711,0.0
1732,131999736.263736
1763,1821880407.89023
1810,0.0
1831,0.0
1852,187579871.522754
1885,340848323.389443
2,1, 7,21, 0,15, 0.00,60.00,SummerDesignDay
8,6294630848.14843
38,1794266174.45477
384,1794266174.45477
621,39492637.7452227
641,39492637.7452227
1687,192565507.311101
1711,0.0
1732,131999736.263736
1763,1853137060.89858
1810,0.0
1831,0.0
1852,187579871.522754
1885,340816323.242706
2,1, 7,21, 0,16, 0.00,60.00,SummerDesignDay
8,6311997714.77524
38,1794266174.45477
384,1794266174.45477
621,39479982.1213412
641,39479982.1213412
1687,200201041.362868
1711,0.0
1732,131999736.263736
1763,1862869954.87102
1810,0.0
1831,0.0
1852,187579871.522754
1885,340814761.845316
2,1, 7,21, 0,17, 0.00,60.00,SummerDesignDay
8,6469707906.01025
38,1794266174.45477
384,1794266174.45477
621,55443314.4162802
641,55443314.4162802
1687,201338512.672805
1711,0.0
1732,307999384.615384
1763,1843425464.53548
1810,0.0
1831,0.0
1852,187579871.522754
1885,340832323.754272
2,1, 7,21, 0,18, 0.00,60.00,SummerDesignDay
8,6554252323.93405
38,1794266174.45477
384,1794266174.45477
621,39389134.1676207
641,39389134.1676207
1687,196263832.703533
1711,0.0
1732,439999120.879121
1763,1801073575.37304
1810,0.0
1831,0.0
1852,187579871.522754
1885,340803574.546043
2,1, 7,21, 0,19, 0.00,60.00,SummerDesignDay
8,6453842174.71855
38,1794266174.45477
384,1794266174.45477
621,23621957.766171
641,23621957.766171
1687,182005391.208416
1711,0.0
1732,439999120.879121
1763,1714929889.28099
1810,0.0
1831,0.0
1852,187579871.522754
1885,340795552.917717
2,1, 7,21, 0,20, 0.00,60.00,SummerDesignDay
8,6375800414.12
38,1794266174.45477
384,1794266174.45477
621,23576731.2147143
641,23576731.2147143
1687,164590903.19257
1711,132255960.
1732,351999296.703297
1763,1610056022.45042
1810,0.0
1831,0.0
1852,187579871.522754
1885,340786011.341415
2,1, 7,21, 0,21, 0.00,60.00,SummerDesignDay
8,6370690022.94223
38,1794266174.45477
384,1794266174.45477
621,15752028.1644202
641,15752028.1644202
1687,160060148.279319
1711,184543200.
1732,351999296.703297
1763,1557185989.57651
1810,0.0
1831,0.0
1852,187579871.522754
1885,340789167.950802
2,1, 7,21, 0,22, 0.00,60.00,SummerDesignDay
8,6237319527.17051
38,1794266174.45477
384,1794266174.45477
621,15704317.6471313
641,15704317.6471313
1687,157645061.201006
1711,184543200.
1732,263999472.527472
1763,1514244755.73917
1810,0.0
1831,0.0
1852,187579871.522754
1885,340774817.270557
2,1, 7,21, 0,23, 0.00,60.00,SummerDesignDay
8,4925071331.97161
38,1794266174.45477
384,1794266174.45477
621,7881210.03910394
641,7881210.03910394
1687,71269705.192096
1711,184543200.
1732,175999648.351648
1763,607577092.810739
1810,0.0
1831,0.0
1852,109421591.721606
1885,187727744.985973
2,1, 7,21, 0,24, 0.00,60.00,SummerDesignDay
8,5237823807.11257
38,1794266174.45477
384,1794266174.45477
621,7881224.64744697
641,7881224.64744697
1687,105884624.026124
1711,184543200.
1732,87999824.1758242
1763,839428855.733394
1810,0.0
1831,0.0
1852,159442890.794341
1885,271992063.473335
1,Chicago Ohare Intl Ap IL USA TMY3 WMO#=725300,  41.98, -87.92,  -6.00, 201.00
2,1, 1, 1, 0, 1, 0.00,60.00,Holiday
8,990329738.880653
38,89713308.7227387
384,538279852.336432
621,1959315880.58388
641,7882985.91051091
1687,131201496.669216
1711,184543200.
1732,43999912.0879121
1763,0.0
1810,1951432894.67337
1831,0.0
1852,0.0
1885,2591969.06435451
2,1, 1, 1, 0, 2, 0.00,60.00,Holiday
8,991493787.47036
38,89713308.7227387
384,538279852.336432
621,2243524160.24026
641,7883030.87479468
1687,131778830.92706
1711,184543200.
1732,43999912.0879121
1763,0.0
1810,2235641129.36547
1831,0.0
1852,0.0
1885,3178683.39621656
2,1, 1, 1, 0, 3, 0.00,60.00,Holiday
8,991507393.63467
38,89713308.7227387
384,538279852.336432
621,2242490710.89047
641,7882969.66712834
1687,131778830.92706
1711,184543200.
1732,43999912.0879121
1763,0.0
1810,2234607741.22334
1831,0.0
1852,0.0
1885,3192289.56052667
2,1, 1, 1, 0, 4, 0.00,60.00,Holiday
8,991534496.353273
38,89713308.7227387
384,538279852.336432
621,2261232201.71154
641,7883011.94860931
1687,131778830.92706
1711,184543200.
1732,43999912.0879121
1763,0.0
1810,2253349189.76293
1831,0.0
1852,0.0
1885,3219392.27912962
2,1, 1, 1, 0, 5, 0.00,60.00,Holiday
8,1035583336.64854
38,89713308.7227387
384,538279852.336432
621,2286696328.28207
641,7882013.55285557
1687,131778830.92706
1711,184543200.
1732,87999824.1758242
1763,0.0
1810,2278814314.72922
1831,0.0
1852,0.0
1885,3268320.48648761
2,1, 1, 1, 0, 6, 0.00,60.00,Holiday
8,1123610549.13761
38,89713308.7227387
384,538279852.336432
621,2301680686.1581
641,7892590.41083918
1687,131778830.92706
1711,184543200.
1732,175999648.351648
1763,0.0
1810,2293788095.74726
1831,0.0
1852,0.0
1885,3295708.79972699
2,1, 1, 1, 0, 7, 0.00,60.00,Holiday
8,1299860462.71963
38,89713308.7227387
384,538279852.336432
621,2337440447.21572
641,7883005.09699513
1687,131971275.679675
1711,184543200.
1732,351999296.703297
1763,0.0
1810,2329557442.11872
1831,0.0
1852,0.0
1885,3353529.27748462
2,1, 1, 1, 0, 8, 0.00,60.00,Holiday
8,1284020207.79288
38,89713308.7227387
384,538279852.336432
621,2263121548.23292
641,7882081.36725656
1687,135892095.417474
1711,76893000.
1732,439999120.879121
1763,0.0
1810,2255239466.86566
1831,0.0
1852,0.0
1885,3242830.43711347
2,1, 1, 1, 0, 9, 0.00,60.00,Holiday
8,1201986361.90418
38,89713308.7227387
384,538279852.336432
621,1776369021.06256
641,7882984.60952144
1687,131586386.174446
1711,0.0
1732,439999120.879121
1763,0.0
1810,1768486036.45304
1831,0.0
1852,0.0
1885,2407693.7914407
2,1, 1, 1, 0,10, 0.00,60.00,Holiday
8,1069059167.42275
38,89713308.7227387
384,538279852.336432
621,1417968093.89832
641,7883026.86375169
1687,131200510.867999
1711,0.0
1732,307999384.615384
1763,0.0
1810,1410085067.03457
1831,0.0
1852,0.0
1885,1866110.88019857
2,1, 1, 1, 0,11, 0.00,60.00,Holiday
8,892367219.92952
38,89713308.7227387
384,538279852.336432
621,1347932823.11274
641,7882965.46368325
1687,130622190.808937
1711,0.0
1732,131999736.263736
1763,0.0
1810,1340049857.64906
1831,0.0
1852,0.0
1885,1752131.79767537
2,1, 1, 1, 0,12, 0.00,60.00,Holiday
8,890220168.36402
38,89713308.7227387
384,538279852.336432
621,1237584405.77767
641,15708301.8289155
1687,128661780.940037
1711,0.0
1732,131999736.263736
1763,0.0
1810,1221876103.94875
1831,0.0
1852,0.0
1885,1565490.10107576
2,1, 1, 1, 0,13, 0.00,60.00,Holiday
8,888164722.468811
38,89713308.7227387
384,538279852.336432
621,1168386852.18544
641,7890281.75408079
1687,126703342.673572
1711,0.0
1732,131999736.263736
1763,0.0
1810,1160496570.43136
1831,0.0
1852,0.0
1885,1468482.47233097
2,1, 1, 1, 0,14, 0.00,60.00,Holiday
8,886395406.492132
38,89713308.7227387
384,538279852.336432
621,1165886356.03721
641,23558518.0046894
1687,124969368.297604
1711,0.0
1732,131999736.263736
1763,0.0
1810,1142327838.03252
1831,0.0
1852,0.0
1885,1433140.87162125
2,1, 1, 1, 0,15, 0.00,60.00,Holiday
8,894050476.702828
38,89713308.7227387
384,538279852.336432
621,1202984043.38353
641,7888791.44043141
1687,132582600.677836
1711,0.0
1732,131999736.263736
1763,0.0
1810,1195095251.9431
1831,0.0
1852,0.0
1885,1474978.70208512
2,1, 1, 1, 0,16, 0.00,60.00,Holiday
8,887275098.660617
38,89713308.7227387
384,538279852.336432
621,1268468365.039
641,7883016.20056977
1687,125739147.308064
1711,0.0
1732,131999736.263736
1763,0.0
1810,1260585348.83843
1831,0.0
1852,0.0
1885,1543054.02964544
2,1, 1, 1, 0,17, 0.00,60.00,Holiday
8,1174327873.45461
38,89713308.7227387
384,538279852.336432
621,1371330488.97378
641,7882955.12115518
1687,125931592.060678
1711,110725920.
1732,307999384.615384
1763,0.0
1810,1363447533.85262
1831,0.0
1852,0.0
1885,1677815.71937448
2,1, 1, 1, 0,18, 0.00,60.00,Holiday
8,1381593991.22103
38,89713308.7227387
384,538279852.336432
621,1441078450.79612
641,7882997.41506752
1687,127278705.328983
1711,184543200.
1732,439999120.879121
1763,0.0
1810,1433195453.38105
1831,0.0
1852,0.0
1885,1779803.95375353
2,1, 1, 1, 0,19, 0.00,60.00,Holiday
8,1380735294.92633
38,89713308.7227387
384,538279852.336432
621,1509336776.81242
641,7883039.66759237
1687,126316481.565908
1711,184543200.
1732,439999120.879121
1763,0.0
1810,1501453737.14483
1831,0.0
1852,0.0
1885,1883331.42213383
2,1, 1, 1, 0,20, 0.00,60.00,Holiday
8,1296734567.02135
38,89713308.7227387
384,538279852.336432
621,1556180725.61411
641,7882978.24661265
1687,130237301.303707
1711,184543200.
1732,351999296.703297
1763,0.0
1810,1548297747.3675
1831,0.0
1852,0.0
1885,1961607.95517353
2,1, 1, 1, 0,21, 0.00,60.00,Holiday
8,1296120108.95651
38,89713308.7227387
384,538279852.336432
621,1552798805.98778
641,7883020.51009673
1687,129625976.305546
1711,184543200.
1732,351999296.703297
1763,0.0
1810,1544915785.47768
1831,0.0
1852,0.0
1885,1958474.8884932
2,1, 1, 1, 0,22, 0.00,60.00,Holiday
8,1204801441.7267
38,89713308.7227387
384,538279852.336432
621,1548975238.51199
641,15714711.4454853
1687,126316481.565908
1711,184543200.
1732,263999472.527472
1763,0.0
1810,1533260527.0665
1831,0.0
1852,0.0
1885,1949126.57414884
2,1, 1, 1, 0,23, 0.00,60.00,Holiday
8,1118846623.28855
38,89713308.7227387
384,538279852.336432
621,1607328220.78887
641,7883003.45724214
1687,128276891.434808
1711,184543200.
1732,175999648.351648
1763,0.0
1810,1599445217.33163
1831,0.0
1852,0.0
1885,2033722.44292665
2,1, 1, 1, 0,24, 0.00,60.00,Holiday
8,1033277863.4901
38,89713308.7227387
384,538279852.336432
621,1674761717.55122
641,7882004.31687733
1687,130622190.808937
1711,184543200.
1732,87999824.1758242
1763,0.0
1810,1666879713.23434
1831,0.0
1852,0.0
1885,2119487.44617086
2,2, 1, 2, 0, 1, 0.00,60.00,Tuesday
8,1169397671.44338
38,89713308.7227387
384,717706469.781909
621,1621296149.54132
641,7886709.1405364
1687,131391969.819396
1711,184543200.
1732,43999912.0879121
1763,0.0
1810,1613409440.40079
1831,0.0
1852,0.0
1885,2042811.03142194
2,2, 1, 2, 0, 2, 0.00,60.00,Tuesday
8,1168694873.95488
38,89713308.7227387
384,717706469.781909
621,1664540548.37697
641,7886723.78430017
1687,130622190.808937
1711,184543200.
1732,43999912.0879121
1763,0.0
1810,1656653824.59267
1831,0.0
1852,0.0
1885,2109792.55338147
2,2, 1, 2, 0, 3, 0.00,60.00,Tuesday
8,1172643145.86897
38,89713308.7227387
384,717706469.781909
621,1693976248.04215
641,15701479.2349207
1687,134543010.546736
1711,184543200.
1732,43999912.0879121
1763,0.0
1810,1678274768.80723
1831,0.0
1852,0.0
1885,2137244.72967127
2,2, 1, 2, 0, 4, 0.00,60.00,Tuesday
8,1168693186.27991
38,89713308.7227387
384,717706469.781909
621,1659212616.20662
641,7885102.79588315
1687,130622190.808937
1711,184543200.
1732,43999912.0879121
1763,0.0
1810,1651327513.41074
1831,0.0
1852,0.0
1885,2108104.8784154
2,2, 1, 2, 0, 5, 0.00,60.00,Tuesday
8,1213587126.11193
38,89713308.7227387
384,717706469.781909
621,1615518683.15645
641,7886640.39826463
1687,131586386.174446
1711,184543200.
1732,87999824.1758242
1763,0.0
1810,1607632042.75818
1831,0.0
1852,0.0
1885,2037937.25701278
2,2, 1, 2, 0, 6, 0.00,60.00,Tuesday
8,1389842397.45413
38,179426617.445477
384,717706469.781909
621,1551768523.34079
641,15723469.1477794
1687,130237301.303707
1711,184543200.
1732,175999648.351648
1763,0.0
1810,1536045054.19301
1831,0.0
1852,0.0
1885,1929160.57138708
2,2, 1, 2, 0, 7, 0.00,60.00,Tuesday
8,1609180156.1113
38,179426617.445477
384,717706469.781909
621,7540924752.92415
641,15716150.2450157
1687,148722910.654736
1711,184543200.
1732,351999296.703297
1763,0.0
1810,7525208602.67914
1831,0.0
1852,0.0
1885,26781661.5258807
2,2, 1, 2, 0, 8, 0.00,60.00,Tuesday
8,1942629374.15217
38,538279852.336432
384,717706469.781909
621,6983719851.64582
641,31537210.3592418
1687,148722910.654736
1711,76893000.
1732,439999120.879121
1763,0.0
1810,6952182641.28658
1831,0.0
1852,0.0
1885,21028020.499973
2,2, 1, 2, 0, 9, 0.00,60.00,Tuesday
8,3834364966.00166
38,1614839557.0093
384,1614839557.0093
621,5796538952.49641
641,63479142.9683072
1687,148722910.654736
1711,0.0
1732,439999120.879121
1763,0.0
1810,5733059809.5281
1831,0.0
1852,0.0
1885,15963820.4492088
2,2, 1, 2, 0,10, 0.00,60.00,Tuesday
8,3700426359.88827
38,1614839557.0093
384,1614839557.0093
621,5138601671.68224
641,71507393.2467796
1687,148722910.654736
1711,0.0
1732,307999384.615384
1763,0.0
1810,5067094278.43546
1831,0.0
1852,0.0
1885,14024950.5995566
2,2, 1, 2, 0,11, 0.00,60.00,Tuesday
8,3523150340.16486
38,1614839557.0093
384,1614839557.0093
621,4636417566.74165
641,71537676.8829408
1687,148722910.654736
1711,0.0
1732,131999736.263736
1763,0.0
1810,4564879889.85871
1831,0.0
1852,0.0
1885,12748579.2278002
2,2, 1, 2, 0,12, 0.00,60.00,Tuesday
8,3522319103.02947
38,1614839557.0093
384,1614839557.0093
621,4305211532.90662
641,79783548.9442418
1687,148722910.654736
1711,0.0
1732,131999736.263736
1763,0.0
1810,4225427983.96238
1831,0.0
1852,0.0
1885,11917342.0924072
2,2, 1, 2, 0,13, 0.00,60.00,Tuesday
8,3342911127.39322
38,1614839557.0093
384,1435412939.56382
621,4289860259.79663
641,104190527.378348
1687,148722910.654736
1711,0.0
1732,131999736.263736
1763,0.0
1810,4185669732.41829
1831,0.0
1852,0.0
1885,11935983.9016287
2,2, 1, 2, 0,14, 0.00,60.00,Tuesday
8,3518021668.27653
38,1614839557.0093
384,1614839557.0093
621,3530571709.63108
641,96042807.880059
1687,148722910.654736
1711,0.0
1732,131999736.263736
1763,0.0
1810,3434528901.75102
1831,0.0
1852,0.0
1885,7619907.33946235
2,2, 1, 2, 0,15, 0.00,60.00,Tuesday
8,3516854658.96392
38,1614839557.0093
384,1614839557.0093
621,3392642120.2863
641,63449298.1201051
1687,148722910.654736
1711,0.0
1732,131999736.263736
1763,0.0
1810,3329192822.1662
1831,0.0
1852,0.0
1885,6452898.0268532
2,2, 1, 2, 0,16, 0.00,60.00,Tuesday
8,3516131492.2788
38,1614839557.0093
384,1614839557.0093
621,3229609864.06175
641,55499660.2236573
1687,148722910.654736
1711,0.0
1732,131999736.263736
1763,0.0
1810,3174110203.83809
1831,0.0
1852,0.0
1885,5729731.34173391
2,2, 1, 2, 0,17, 0.00,60.00,Tuesday
8,3799334023.11349
38,1614839557.0093
384,1614839557.0093
621,3147201910.07297
641,79670833.182569
1687,148722910.654736
1711,107650200.
1732,307999384.615384
1763,0.0
1810,3067531076.8904
1831,0.0
1852,0.0
1885,5282413.82477673
2,2, 1, 2, 0,18, 0.00,60.00,Tuesday
8,3470994899.97798
38,1255986322.11834
384,1435412939.56382
621,3511877965.72485
641,47423693.3912814
1687,148722910.654736
1711,184543200.
1732,439999120.879121
1763,0.0
1810,3464454272.33356
1831,0.0
1852,0.0
1885,6330406.76196115
2,2, 1, 2, 0,19, 0.00,60.00,Tuesday
8,2755613069.99236
38,897133087.227387
384,1076559704.67286
621,4055626935.48271
641,39438885.022892
1687,148722910.654736
1711,184543200.
1732,439999120.879121
1763,0.0
1810,4016188050.45982
1831,0.0
1852,0.0
1885,8655046.55825131
2,2, 1, 2, 0,20, 0.00,60.00,Tuesday
8,2667338978.61765
38,897133087.227387
384,1076559704.67286
621,3925255881.04599
641,23626536.2823746
1687,148722910.654736
1711,184543200.
1732,351999296.703297
1763,0.0
1810,3901629344.76361
1831,0.0
1852,0.0
1885,8380779.3593668
2,2, 1, 2, 0,21, 0.00,60.00,Tuesday
8,2131617517.60663
38,538279852.336432
384,897133087.227387
621,4398246388.08675
641,31506516.148606
1687,148722910.654736
1711,184543200.
1732,351999296.703297
1763,0.0
1810,4366739871.93814
1831,0.0
1852,0.0
1885,10939170.6847816
2,2, 1, 2, 0,22, 0.00,60.00,Tuesday
8,2043485372.95168
38,538279852.336432
384,897133087.227387
621,4314741880.17284
641,15723425.3044223
1687,148722910.654736
1711,184543200.
1732,263999472.527472
1763,0.0
1810,4299018454.86842
1831,0.0
1852,0.0
1885,10806850.2056487
2,2, 1, 2, 0,23, 0.00,60.00,Tuesday
8,1257684982.92056
38,179426617.445477
384,717706469.781909
621,7886726.97258698
641,7886726.97258698
1687,0.0
1711,184543200.
1732,175999648.351648
1763,0.0
1810,0.0
1831,0.0
1852,0.0
1885,9047.34152002942
2,2, 1, 2, 0,24, 0.00,60.00,Tuesday
8,1079971847.65932
38,89713308.7227387
384,717706469.781909
621,15701484.1462686
641,15701484.1462686
1687,0.0
1711,184543200.
1732,87999824.1758242
1763,0.0
1810,0.0
1831,0.0
1852,0.0
1885,9044.97884395024
End of Data
 Number of Records Written=        1248
